 &FCI NORB= 14,NELEC=14,MS2= 0,
  ORBSYM=5,5,5,5,6,6,6,7,7,7,7,8,8,8,
  ISYM=1
 &END
   0.245933940364      1  1  1  1
  -0.380599983661E-01  2  1  1  1
   0.345355398039E-01  2  1  2  1
   0.189914200576      2  2  1  1
   0.697935910260E-02  2  2  2  1
   0.205334230641      2  2  2  2
   0.464129877464E-03  3  1  1  1
   0.772324134140E-02  3  1  2  1
  -0.400896369506E-02  3  1  2  2
   0.215028885877E-01  3  1  3  1
   0.223274105415E-01  3  2  1  1
  -0.219894268970E-01  3  2  2  1
  -0.127673497040E-01  3  2  2  2
  -0.253511956537E-02  3  2  3  1
   0.297895446887E-01  3  2  3  2
   0.215858694150      3  3  1  1
  -0.171323277724E-01  3  3  2  1
   0.193713462671      3  3  2  2
  -0.763455330856E-02  3  3  3  1
   0.163301891978E-01  3  3  3  2
   0.215997429465      3  3  3  3
  -0.144803846224E-01  4  1  1  1
   0.438382079000E-02  4  1  2  1
  -0.627225540158E-02  4  1  2  2
  -0.921096786354E-02  4  1  3  1
   0.121864826323E-01  4  1  3  2
   0.540800085546E-02  4  1  3  3
   0.238509674648E-01  4  1  4  1
   0.101869093506E-01  4  2  1  1
  -0.299439554285E-02  4  2  2  1
  -0.594642646249E-02  4  2  2  2
   0.160252312244E-01  4  2  3  1
   0.634644820164E-02  4  2  3  2
  -0.239744167350E-02  4  2  3  3
  -0.710841546670E-02  4  2  4  1
   0.161447723905E-01  4  2  4  2
  -0.368201713408E-01  4  3  1  1
   0.361642752362E-01  4  3  2  1
   0.425372865914E-02  4  3  2  2
   0.182260067215E-01  4  3  3  1
  -0.224891696758E-01  4  3  3  2
  -0.221763084940E-01  4  3  3  3
  -0.502870673134E-03  4  3  4  1
   0.666371945483E-02  4  3  4  2
   0.485981984110E-01  4  3  4  3
   0.236323577476      4  4  1  1
  -0.309956818064E-01  4  4  2  1
   0.190573935193      4  4  2  2
  -0.169350896970E-02  4  4  3  1
   0.245405673806E-01  4  4  3  2
   0.220683184305      4  4  3  3
  -0.390725999319E-02  4  4  4  1
   0.735099655496E-02  4  4  4  2
  -0.327704103192E-01  4  4  4  3
   0.237766468979      4  4  4  4
   0.201976871948      5  5  1  1
   0.241949201996E-02  5  5  2  1
   0.198536997260      5  5  2  2
   0.102414527194E-01  5  5  3  1
  -0.437785687392E-02  5  5  3  2
   0.195445252266      5  5  3  3
  -0.108514068705E-01  5  5  4  1
   0.715379454912E-02  5  5  4  2
   0.579188518921E-02  5  5  4  3
   0.200289542773      5  5  4  4
   0.205580715050      5  5  5  5
  -0.450171613076E-01  6  5  1  1
   0.344247906148E-01  6  5  2  1
   0.111826957379E-01  6  5  2  2
  -0.663446366697E-02  6  5  3  1
  -0.246204301606E-01  6  5  3  2
  -0.157323906227E-01  6  5  3  3
   0.107681466237E-01  6  5  4  1
  -0.146300777229E-01  6  5  4  2
   0.301335334156E-01  6  5  4  3
  -0.358800908347E-01  6  5  4  4
  -0.516148419678E-02  6  5  5  5
   0.452293865819E-01  6  5  6  5
   0.224353589061      6  6  1  1
  -0.170639660881E-01  6  6  2  1
   0.200455463790      6  6  2  2
   0.422788826918E-02  6  6  3  1
  -0.380855909756E-02  6  6  3  2
   0.200810485553      6  6  3  3
  -0.247641031676E-01  6  6  4  1
   0.587138393304E-02  6  6  4  2
  -0.152634397917E-01  6  6  4  3
   0.214769210758      6  6  4  4
   0.205904163645      6  6  5  5
  -0.226360033847E-01  6  6  6  5
   0.226502486300      6  6  6  6
  -0.570819695554E-02  7  5  1  1
   0.478683573298E-02  7  5  2  1
  -0.113281683893E-01  7  5  2  2
   0.107803517579E-01  7  5  3  1
   0.149786202728E-01  7  5  3  2
   0.962506706854E-03  7  5  3  3
   0.138022446922E-01  7  5  4  1
   0.106487664496E-01  7  5  4  2
   0.109411552699E-01  7  5  4  3
   0.118789866071E-02  7  5  4  4
  -0.913947845401E-03  7  5  5  5
  -0.289782737109E-02  7  5  6  5
  -0.171336255101E-01  7  5  6  6
   0.244328121344E-01  7  5  7  5
   0.343453118766E-01  7  6  1  1
  -0.261944057152E-01  7  6  2  1
  -0.792544671274E-02  7  6  2  2
   0.480843542196E-02  7  6  3  1
   0.200697674441E-01  7  6  3  2
   0.111693668381E-01  7  6  3  3
  -0.783635138205E-02  7  6  4  1
   0.127011594638E-01  7  6  4  2
  -0.228512278578E-01  7  6  4  3
   0.281189387530E-01  7  6  4  4
   0.401295490849E-02  7  6  5  5
  -0.339125656159E-01  7  6  6  5
   0.167461206544E-01  7  6  6  6
   0.335987815069E-02  7  6  7  5
   0.276385992809E-01  7  6  7  6
   0.198926232892      7  7  1  1
   0.499416873616E-02  7  7  2  1
   0.195115791617      7  7  2  2
   0.145393296532E-01  7  7  3  1
   0.243850991376E-02  7  7  3  2
   0.199279557120      7  7  3  3
  -0.272450173904E-02  7  7  4  1
   0.122011770614E-01  7  7  4  2
   0.146695251424E-01  7  7  4  3
   0.204301092907      7  7  4  4
   0.205153822987      7  7  5  5
  -0.460927503207E-02  7  7  6  5
   0.198266694567      7  7  6  6
   0.117194117403E-01  7  7  7  5
   0.410983639453E-02  7  7  7  6
   0.217506350241      7  7  7  7
   0.230139742248      8  8  1  1
  -0.294532356471E-01  8  8  2  1
   0.185853945484      8  8  2  2
  -0.202927580583E-02  8  8  3  1
   0.250817308277E-01  8  8  3  2
   0.214278446875      8  8  3  3
  -0.869865821985E-03  8  8  4  1
   0.657425723593E-02  8  8  4  2
  -0.299396602791E-01  8  8  4  3
   0.227541176554      8  8  4  4
   0.195495171899      8  8  5  5
  -0.338171988068E-01  8  8  6  5
   0.206878452925      8  8  6  6
   0.336633411255E-02  8  8  7  5
   0.257776204030E-01  8  8  7  6
   0.197853962972      8  8  7  7
   0.224074274402      8  8  8  8
   0.367087231984E-01  9  8  1  1
  -0.374053778189E-01  9  8  2  1
  -0.394917066663E-02  9  8  2  2
  -0.202290311657E-01  9  8  3  1
   0.221645433994E-01  9  8  3  2
   0.221405632698E-01  9  8  3  3
   0.138561777508E-02  9  8  4  1
  -0.776294167567E-02  9  8  4  2
  -0.466298415814E-01  9  8  4  3
   0.312239230438E-01  9  8  4  4
  -0.754593403713E-02  9  8  5  5
  -0.292569646397E-01  9  8  6  5
   0.146075850263E-01  9  8  6  6
  -0.116472994494E-01  9  8  7  5
   0.215248429096E-01  9  8  7  6
  -0.138678248139E-01  9  8  7  7
   0.302839210420E-01  9  8  8  8
   0.487019658536E-01  9  8  9  8
   0.213285719317      9  9  1  1
  -0.184352531891E-01  9  9  2  1
   0.190295402316      9  9  2  2
  -0.899024541981E-02  9  9  3  1
   0.189631730564E-01  9  9  3  2
   0.210921351423      9  9  3  3
   0.675152060094E-02  9  9  4  1
  -0.107755464094E-02  9  9  4  2
  -0.231555520949E-01  9  9  4  3
   0.216536802154      9  9  4  4
   0.191166504818      9  9  5  5
  -0.158078929849E-01  9  9  6  5
   0.195992444866      9  9  6  6
   0.237918408961E-02  9  9  7  5
   0.136070516535E-01  9  9  7  6
   0.194250613189      9  9  7  7
   0.212365855798      9  9  8  8
   0.230867099491E-01  9  9  9  8
   0.210314648187      9  9  9  9
  -0.979751726251E-02 10  8  1  1
   0.213968172623E-02 10  8  2  1
   0.673236180664E-02 10  8  2  2
  -0.173240724857E-01 10  8  3  1
  -0.557404994278E-02 10  8  3  2
   0.121446544254E-02 10  8  3  3
   0.658485275666E-02 10  8  4  1
  -0.152610166692E-01 10  8  4  2
  -0.798895559423E-02 10  8  4  3
  -0.671518684756E-02 10  8  4  4
  -0.772547161079E-02 10  8  5  5
   0.150179054321E-01 10  8  6  5
  -0.568607685569E-02 10  8  6  6
  -0.111723587156E-01 10  8  7  5
  -0.106824338343E-01 10  8  7  6
  -0.131793332930E-01 10  8  7  7
  -0.712129602049E-02 10  8  8  8
   0.805411877127E-02 10  8  9  8
   0.264804528515E-02 10  8  9  9
   0.175244639298E-01 10  8 10  8
   0.225369852446E-01 10  9  1  1
  -0.216982962709E-01 10  9  2  1
  -0.116368550083E-01 10  9  2  2
  -0.310422234611E-02 10  9  3  1
   0.282994367405E-01 10  9  3  2
   0.183851517986E-01 10  9  3  3
   0.119006259130E-01 10  9  4  1
   0.465692749628E-02 10  9  4  2
  -0.226827072433E-01 10  9  4  3
   0.257617975246E-01 10  9  4  4
  -0.376730923676E-02 10  9  5  5
  -0.240457388826E-01 10  9  6  5
  -0.240935289737E-02 10  9  6  6
   0.134447005233E-01 10  9  7  5
   0.183231564575E-01 10  9  7  6
   0.349555999413E-02 10  9  7  7
   0.249080320921E-01 10  9  8  8
   0.229975563834E-01 10  9  9  8
   0.183178360271E-01 10  9  9  9
  -0.569166190711E-02 10  9 10  8
   0.290512305633E-01 10  9 10  9
   0.191887451409     10 10  1  1
   0.738190827906E-02 10 10  2  1
   0.206237834784     10 10  2  2
  -0.265516618851E-02 10 10  3  1
  -0.120367570569E-01 10 10  3  2
   0.198839165303     10 10  3  3
  -0.464294902994E-02 10 10  4  1
  -0.619693779758E-02 10 10  4  2
   0.456955503510E-02 10 10  4  3
   0.195035711467     10 10  4  4
   0.200998014160     10 10  5  5
   0.101990128251E-01 10 10  6  5
   0.202074927966     10 10  6  6
  -0.945096564210E-02 10 10  7  5
  -0.892246238271E-02 10 10  7  6
   0.199913500316     10 10  7  7
   0.189871486291     10 10  8  8
  -0.489294050375E-02 10 10  9  8
   0.193579923904     10 10  9  9
   0.580951587205E-02 10 10 10  8
  -0.113203481742E-01 10 10 10  9
   0.213723975192     10 10 10 10
  -0.132340258202E-01 11  8  1  1
   0.410568311135E-02 11  8  2  1
  -0.532535520856E-02 11  8  2  2
  -0.855856319425E-02 11  8  3  1
   0.116089353924E-01 11  8  3  2
   0.581020304870E-02 11  8  3  3
   0.218556101807E-01 11  8  4  1
  -0.617972462262E-02 11  8  4  2
  -0.778557576917E-03 11  8  4  3
  -0.174191150011E-02 11  8  4  4
  -0.975114129774E-02 11  8  5  5
   0.101138341572E-01 11  8  6  5
  -0.226441659146E-01 11  8  6  6
   0.129162321509E-01 11  8  7  5
  -0.672827277671E-02 11  8  7  6
  -0.133517601519E-02 11  8  7  7
  -0.176173690544E-02 11  8  8  8
   0.734079499765E-03 11  8  9  8
   0.652924793925E-02 11  8  9  9
   0.677002447192E-02 11  8 10  8
   0.119214994637E-01 11  8 10  9
  -0.485492428256E-02 11  8 10 10
   0.222311837844E-01 11  8 11  8
  -0.146089789318E-02 11  9  1  1
  -0.547466725041E-02 11  9  2  1
   0.354964932829E-02 11  9  2  2
  -0.190580511608E-01 11  9  3  1
   0.143102109286E-02 11  9  3  2
   0.816734620111E-02 11  9  3  3
   0.873509575706E-02 11  9  4  1
  -0.161139847674E-01 11  9  4  2
  -0.180570467216E-01 11  9  4  3
   0.168283768038E-02 11  9  4  4
  -0.847674925519E-02 11  9  5  5
   0.654673114778E-02 11  9  6  5
  -0.403506372547E-02 11  9  6  6
  -0.101915289092E-01 11  9  7  5
  -0.603013329831E-02 11  9  7  6
  -0.144904770343E-01 11  9  7  7
   0.111234129545E-02 11  9  8  8
   0.174621839544E-01 11  9  9  8
   0.756769332736E-02 11  9  9  9
   0.164378255243E-01 11  9 10  8
   0.248409194426E-02 11  9 10  9
   0.443122700451E-02 11  9 10 10
   0.854190349373E-02 11  9 11  8
   0.199158969745E-01 11  9 11  9
   0.387732294456E-01 11 10  1  1
  -0.337441075566E-01 11 10  2  1
  -0.751757573178E-02 11 10  2  2
  -0.614268872732E-02 11 10  3  1
   0.228621801857E-01 11 10  3  2
   0.181863038805E-01 11 10  3  3
  -0.430448179843E-02 11 10  4  1
   0.329996199123E-02 11 10  4  2
  -0.388178619084E-01 11 10  4  3
   0.327540937794E-01 11 10  4  4
  -0.673965896978E-03 11 10  5  5
  -0.357676036864E-01 11 10  6  5
   0.176068930657E-01 11 10  6  6
  -0.391939130632E-02 11 10  7  5
   0.271522813147E-01 11 10  7  6
  -0.596491957736E-02 11 10  7  7
   0.307346887141E-01 11 10  8  8
   0.371621152971E-01 11 10  9  8
   0.186692718989E-01 11 10  9  9
  -0.341109575279E-02 11 10 10  8
   0.231127319400E-01 11 10 10  9
  -0.847473492721E-02 11 10 10 10
  -0.456364206212E-02 11 10 11  8
   0.573617576833E-02 11 10 11  9
   0.376824175492E-01 11 10 11 10
   0.249053012662     11 11  1  1
  -0.374435625378E-01 11 11  2  1
   0.193593804031     11 11  2  2
   0.112540634879E-02 11 11  3  1
   0.222147334010E-01 11 11  3  2
   0.222435557734     11 11  3  3
  -0.141443676931E-01 11 11  4  1
   0.102680924093E-01 11 11  4  2
  -0.378828477840E-01 11 11  4  3
   0.244698687804     11 11  4  4
   0.206085001147     11 11  5  5
  -0.452130984818E-01 11 11  6  5
   0.229125372338     11 11  6  6
  -0.538556421589E-02 11 11  7  5
   0.346496523736E-01 11 11  7  6
   0.205723642406     11 11  7  7
   0.235048911423     11 11  8  8
   0.364223340220E-01 11 11  9  8
   0.218160165282     11 11  9  9
  -0.104854450987E-01 11 11 10  8
   0.228561673033E-01 11 11 10  9
   0.199314783427     11 11 10 10
  -0.139279514259E-01 11 11 11  8
  -0.163303150071E-02 11 11 11  9
   0.408452185404E-01 11 11 11 10
   0.261336275694     11 11 11 11
   0.193826643937     12 12  1  1
   0.661888310339E-02 12 12  2  1
   0.190152166164     12 12  2  2
   0.154241570618E-01 12 12  3  1
   0.402280134961E-02 12 12  3  2
   0.193684281740     12 12  3  3
  -0.676284836569E-03 12 12  4  1
   0.125011387894E-01 12 12  4  2
   0.138476926948E-01 12 12  4  3
   0.197399213351     12 12  4  4
   0.201766806209     12 12  5  5
  -0.413924739760E-02 12 12  6  5
   0.191607552872     12 12  6  6
   0.141501576781E-01 12 12  7  5
   0.413061845889E-02 12 12  7  6
   0.210184159285     12 12  7  7
   0.194598257337     12 12  8  8
  -0.155369063872E-01 12 12  9  8
   0.191076200255     12 12  9  9
  -0.129797075480E-01 12 12 10  8
   0.302997529381E-02 12 12 10  9
   0.194956007049     12 12 10 10
  -0.834840028308E-03 12 12 11  8
  -0.138357675171E-01 12 12 11  9
  -0.521534554149E-02 12 12 11 10
   0.199074821305     12 12 11 11
   0.208471763893     12 12 12 12
  -0.329277666928E-01 13 12  1  1
   0.252663558852E-01 13 12  2  1
   0.907837436127E-02 13 12  2  2
  -0.501396775982E-02 13 12  3  1
  -0.189977708942E-01 13 12  3  2
  -0.129056056329E-01 13 12  3  3
   0.611028745180E-02 13 12  4  1
  -0.101504812137E-01 13 12  4  2
   0.216611607098E-01 13 12  4  3
  -0.264194190456E-01 13 12  4  4
  -0.353620025352E-02 13 12  5  5
   0.335026537438E-01 13 12  6  5
  -0.153852386688E-01 13 12  6  6
  -0.350492865176E-02 13 12  7  5
  -0.239272202274E-01 13 12  7  6
  -0.419876869586E-02 13 12  7  7
  -0.261134456688E-01 13 12  8  8
  -0.222523209246E-01 13 12  9  8
  -0.115337438319E-01 13 12  9  9
   0.126054780223E-01 13 12 10  8
  -0.198362081412E-01 13 12 10  9
   0.834830320965E-02 13 12 10 10
   0.675482319501E-02 13 12 11  8
   0.511776848950E-02 13 12 11  9
  -0.271264178716E-01 13 12 11 10
  -0.337882143122E-01 13 12 11 11
  -0.341191035954E-02 13 12 12 12
   0.267748275947E-01 13 12 13 12
   0.225826443848     13 13  1  1
  -0.175838848083E-01 13 13  2  1
   0.200565110137     13 13  2  2
   0.400647350923E-02 13 13  3  1
  -0.147138009941E-02 13 13  3  2
   0.203241568632     13 13  3  3
  -0.220199373285E-01 13 13  4  1
   0.594692607272E-02 13 13  4  2
  -0.157692100001E-01 13 13  4  3
   0.216490168580     13 13  4  4
   0.206587577297     13 13  5  5
  -0.232630871860E-01 13 13  6  5
   0.225931762439     13 13  6  6
  -0.147843818980E-01 13 13  7  5
   0.170840952978E-01 13 13  7  6
   0.199838752938     13 13  7  7
   0.211289078328     13 13  8  8
   0.154525765958E-01 13 13  9  8
   0.199721758097     13 13  9  9
  -0.618446902903E-02 13 13 10  8
  -0.177873084318E-02 13 13 10  9
   0.205525810121     13 13 10 10
  -0.228302743306E-01 13 13 11  8
  -0.416108614335E-02 13 13 11  9
   0.186084841367E-01 13 13 11 10
   0.233936517009     13 13 11 11
   0.195127666337     13 13 12 12
  -0.164519602190E-01 13 13 13 12
   0.230388221521     13 13 13 13
  -0.425126047172E-02 14 12  1  1
   0.416022527873E-02 14 12  2  1
  -0.101902352548E-01 14 12  2  2
   0.108033032814E-01 14 12  3  1
   0.141915716823E-01 14 12  3  2
   0.211255900212E-02 14 12  3  3
   0.124043549932E-01 14 12  4  1
   0.107554828961E-01 14 12  4  2
   0.111764813039E-01 14 12  4  3
   0.313026059278E-02 14 12  4  4
  -0.836416475344E-04 14 12  5  5
  -0.339134946658E-02 14 12  6  5
  -0.149428150758E-01 14 12  6  6
   0.232812121795E-01 14 12  7  5
   0.357878758547E-02 14 12  7  6
   0.136530395850E-01 14 12  7  7
   0.337898598736E-02 14 12  8  8
  -0.111022704535E-01 14 12  9  8
   0.217525991436E-02 14 12  9  9
  -0.116157107327E-01 14 12 10  8
   0.140923379794E-01 14 12 10  9
  -0.968129849333E-02 14 12 10 10
   0.128452709418E-01 14 12 11  8
  -0.106758872981E-01 14 12 11  9
  -0.385072660622E-02 14 12 11 10
  -0.437329259801E-02 14 12 11 11
   0.136363169301E-01 14 12 12 12
  -0.415323999742E-02 14 12 13 12
  -0.148537131768E-01 14 12 13 13
   0.237568079766E-01 14 12 14 12
   0.461059601075E-01 14 13  1  1
  -0.360345012344E-01 14 13  2  1
  -0.108543253542E-01 14 13  2  2
   0.477115216883E-02 14 13  3  1
   0.259361852371E-01 14 13  3  2
   0.157145196189E-01 14 13  3  3
  -0.102851717677E-01 14 13  4  1
   0.145183752001E-01 14 13  4  2
  -0.323157243203E-01 14 13  4  3
   0.367949750372E-01 14 13  4  4
   0.431782489634E-02 14 13  5  5
  -0.455561055908E-01 14 13  6  5
   0.227943189940E-01 14 13  6  6
   0.235536069669E-02 14 13  7  5
   0.355235320390E-01 14 13  7  6
   0.341522703754E-02 14 13  7  7
   0.352355188755E-01 14 13  8  8
   0.321649269605E-01 14 13  9  8
   0.171925576269E-01 14 13  9  9
  -0.146430703967E-01 14 13 10  8
   0.254248343108E-01 14 13 10  9
  -0.129837077890E-01 14 13 10 10
  -0.105374608602E-01 14 13 11  8
  -0.700112547445E-02 14 13 11  9
   0.390774208678E-01 14 13 11 10
   0.479956471970E-01 14 13 11 11
   0.287974903148E-02 14 13 12 12
  -0.347000176232E-01 14 13 13 12
   0.240487130758E-01 14 13 13 13
   0.304304168826E-02 14 13 14 12
   0.499811204706E-01 14 13 14 13
   0.205429050640     14 14  1  1
   0.349125577321E-03 14 14  2  1
   0.201554665462     14 14  2  2
   0.838749466253E-02 14 14  3  1
  -0.364999108205E-02 14 14  3  2
   0.200816692815     14 14  3  3
  -0.970991728988E-02 14 14  4  1
   0.686470950892E-02 14 14  4  2
   0.638968315418E-02 14 14  4  3
   0.206378102041     14 14  4  4
   0.206608481137     14 14  5  5
  -0.532888090847E-02 14 14  6  5
   0.209123294792     14 14  6  6
  -0.990607301008E-03 14 14  7  5
   0.420207645933E-02 14 14  7  6
   0.211703805310     14 14  7  7
   0.200263432333     14 14  8  8
  -0.544307463918E-02 14 14  9  8
   0.196405619529     14 14  9  9
  -0.713082884934E-02 14 14 10  8
  -0.351314581761E-02 14 14 10  9
   0.207985339566     14 14 10 10
  -0.957380481280E-02 14 14 11  8
  -0.870930667937E-02 14 14 11  9
  -0.180110481161E-02 14 14 11 10
   0.214090857948     14 14 11 11
   0.204669274610     14 14 12 12
  -0.365345463191E-02 14 14 13 12
   0.212918450808     14 14 13 13
  -0.234314288559E-03 14 14 14 12
   0.432980098722E-02 14 14 14 13
   0.215472894092     14 14 14 14
   0.621427038380E-01  5  1  5  1
   0.418495150419E-01  5  2  5  1
   0.639945054603E-01  5  2  5  2
   0.162392142204E-01  5  3  5  1
  -0.497666061155E-02  5  3  5  2
   0.222083452503E-01  5  3  5  3
  -0.868186039274E-02  5  4  5  1
   0.248089078238E-03  5  4  5  2
   0.633265022767E-02  5  4  5  3
   0.163953974593E-01  5  4  5  4
  -0.270365226364E-01  6  1  5  1
   0.131450725114E-01  6  1  5  2
  -0.190705907223E-01  6  1  5  3
   0.112419703113E-01  6  1  5  4
   0.396198014604E-01  6  1  6  1
   0.553744407736E-01  6  2  5  1
   0.556689526038E-01  6  2  5  2
  -0.246684433875E-02  6  2  5  3
  -0.137143040675E-01  6  2  5  4
  -0.971699433867E-02  6  2  6  1
   0.663102395934E-01  6  2  6  2
  -0.368028604619E-01  6  3  5  1
  -0.350405217471E-01  6  3  5  2
   0.203282996366E-03  6  3  5  3
   0.106879133973E-01  6  3  5  4
   0.805555566993E-02  6  3  6  1
  -0.424119801065E-01  6  3  6  2
   0.294769479745E-01  6  3  6  3
   0.193929714607E-01  6  4  5  1
  -0.116147438349E-01  6  4  5  2
   0.162434722452E-01  6  4  5  3
  -0.829555128548E-02  6  4  5  4
  -0.303290135277E-01  6  4  6  1
   0.500657888091E-02  6  4  6  2
  -0.486026040052E-02  6  4  6  3
   0.257066048177E-01  6  4  6  4
  -0.491235582511E-02  7  1  5  1
   0.407800443297E-02  7  1  5  2
   0.695033119458E-02  7  1  5  3
   0.149869774700E-01  7  1  5  4
   0.107813479516E-01  7  1  6  1
  -0.100367635582E-01  7  1  6  2
   0.689367444714E-02  7  1  6  3
  -0.768087369956E-02  7  1  6  4
   0.147926733416E-01  7  1  7  1
   0.656751064242E-02  7  2  5  1
  -0.158135242889E-01  7  2  5  2
   0.213293960734E-01  7  2  5  3
   0.799979639124E-02  7  2  5  4
  -0.188025921066E-01  7  2  6  1
  -0.127075539635E-01  7  2  6  2
   0.874884987033E-02  7  2  6  3
   0.165896929943E-01  7  2  6  4
   0.665673354444E-02  7  2  7  1
   0.243287405239E-01  7  2  7  2
   0.459940881656E-01  7  3  5  1
   0.537613807466E-01  7  3  5  2
   0.821498517357E-02  7  3  5  3
   0.597723924792E-02  7  3  5  4
   0.104296651331E-02  7  3  6  1
   0.480627442179E-01  7  3  6  2
  -0.304054193313E-01  7  3  6  3
  -0.319429482552E-02  7  3  6  4
   0.887142992695E-02  7  3  7  1
  -0.145317919613E-02  7  3  7  2
   0.563744962532E-01  7  3  7  3
   0.605146413689E-01  7  4  5  1
   0.475785263730E-01  7  4  5  2
   0.185854444846E-01  7  4  5  3
  -0.758898114797E-03  7  4  5  4
  -0.196838000902E-01  7  4  6  1
   0.538907787570E-01  7  4  6  2
  -0.353732013089E-01  7  4  6  3
   0.147782337640E-01  7  4  6  4
   0.272459005270E-02  7  4  7  1
   0.893520700913E-02  7  4  7  2
   0.553491957688E-01  7  4  7  3
   0.672993403847E-01  7  4  7  4
  -0.601179643415E-01 12  8  5  1
  -0.471815242047E-01 12  8  5  2
  -0.193492514717E-01 12  8  5  3
  -0.114695754140E-02 12  8  5  4
   0.190641927207E-01 12  8  6  1
  -0.518193747257E-01 12  8  6  2
   0.334979486919E-01 12  8  6  3
  -0.131725518840E-01 12  8  6  4
  -0.440928187606E-02 12  8  7  1
  -0.968391218403E-02 12  8  7  2
  -0.541185130562E-01 12  8  7  3
  -0.639341479881E-01 12  8  7  4
   0.649066304656E-01 12  8 12  8
   0.451784073707E-01 12  9  5  1
   0.528890636288E-01 12  9  5  2
   0.961765988860E-02 12  9  5  3
   0.622471821978E-02 12  9  5  4
   0.125898410664E-02 12  9  6  1
   0.459396739210E-01 12  9  6  2
  -0.288841593542E-01 12  9  6  3
  -0.910669386987E-03 12  9  6  4
   0.935115139562E-02 12  9  7  1
   0.548629529289E-03 12  9  7  2
   0.528137418226E-01 12  9  7  3
   0.533333555407E-01 12  9  7  4
  -0.532973204301E-01 12  9 12  8
   0.534902183329E-01 12  9 12  9
   0.722188204024E-02 12 10  5  1
  -0.156010563139E-01 12 10  5  2
   0.215842218154E-01 12 10  5  3
   0.715952390125E-02 12 10  5  4
  -0.190943501881E-01 12 10  6  1
  -0.126387223342E-01 12 10  6  2
   0.653595178360E-02 12 10  6  3
   0.153012905347E-01 12 10  6  4
   0.699250365592E-02 12 10  7  1
   0.223107399404E-01 12 10  7  2
   0.198373483942E-03 12 10  7  3
   0.957727154806E-02 12 10  7  4
  -0.990910463063E-02 12 10 12  8
  -0.658027616311E-03 12 10 12  9
   0.248009628287E-01 12 10 12 10
   0.510675409762E-02 12 11  5  1
  -0.333712739806E-02 12 11  5  2
  -0.622101771525E-02 12 11  5  3
  -0.144867938623E-01 12 11  5  4
  -0.997697717176E-02 12 11  6  1
   0.926778872351E-02 12 11  6  2
  -0.751486961197E-02 12 11  6  3
   0.671740454800E-02 12 11  6  4
  -0.135134855364E-01 12 11  7  1
  -0.725005869786E-02 12 11  7  2
  -0.860177189285E-02 12 11  7  3
  -0.349948314020E-02 12 11  7  4
   0.332208339665E-02 12 11 12  8
  -0.863394553505E-02 12 11 12  9
  -0.654161562386E-02 12 11 12 10
   0.143025142395E-01 12 11 12 11
   0.197521914117E-01 13  8  5  1
  -0.126902656547E-01 13  8  5  2
   0.159512506575E-01 13  8  5  3
  -0.693500649130E-02 13  8  5  4
  -0.313157489653E-01 13  8  6  1
   0.469249824221E-02 13  8  6  2
  -0.433576650862E-02 13  8  6  3
   0.225802933252E-01 13  8  6  4
  -0.695267323354E-02 13  8  7  1
   0.159100810710E-01 13  8  7  2
  -0.102638111537E-02 13  8  7  3
   0.139283449348E-01 13  8  7  4
  -0.147482315153E-01 13  8 12  8
  -0.290768891287E-02 13  8 12  9
   0.178393713236E-01 13  8 12 10
   0.721269851582E-02 13  8 12 11
   0.270979197107E-01 13  8 13  8
   0.352063325916E-01 13  9  5  1
   0.331302207259E-01 13  9  5  2
  -0.787633437879E-03 13  9  5  3
  -0.817248091915E-02 13  9  5  4
  -0.816193594486E-02 13  9  6  1
   0.411991765905E-01 13  9  6  2
  -0.251477163766E-01 13  9  6  3
   0.449579808278E-02 13  9  6  4
  -0.672839598465E-02 13  9  7  1
  -0.593875456173E-02 13  9  7  2
   0.291148143511E-01 13  9  7  3
   0.334784731894E-01 13  9  7  4
  -0.334712527771E-01 13  9 12  8
   0.284555494527E-01 13  9 12  9
  -0.781709066481E-02 13  9 12 10
   0.640939735546E-02 13  9 12 11
   0.487463909557E-02 13  9 13  8
   0.274744073240E-01 13  9 13  9
  -0.576341069682E-01 13 10  5  1
  -0.567134139576E-01 13 10  5  2
  -0.137908727634E-03 13 10  5  3
   0.131650267655E-01 13 10  5  4
   0.107399185922E-01 13 10  6  1
  -0.664575423660E-01 13 10  6  2
   0.441913085584E-01 13 10  6  3
  -0.584185286215E-02 13 10  6  4
   0.841950344831E-02 13 10  7  1
   0.118465854845E-01 13 10  7  2
  -0.502211372453E-01 13 10  7  3
  -0.564849801641E-01 13 10  7  4
   0.554888187837E-01 13 10 12  8
  -0.487383039259E-01 13 10 12  9
   0.112851869688E-01 13 10 12 10
  -0.100394835666E-01 13 10 12 11
  -0.580388980286E-02 13 10 13  8
  -0.419764566476E-01 13 10 13  9
   0.710905434067E-01 13 10 13 10
  -0.267630549983E-01 13 11  5  1
   0.137863252352E-01 13 11  5  2
  -0.200016792453E-01 13 11  5  3
   0.112486016523E-01 13 11  5  4
   0.398649295762E-01 13 11  6  1
  -0.883469855020E-02 13 11  6  2
   0.776618382740E-02 13 11  6  3
  -0.317722412033E-01 13 11  6  4
   0.105617453737E-01 13 11  7  1
  -0.198463210189E-01 13 11  7  2
   0.230008138857E-02 13 11  7  3
  -0.196200992086E-01 13 11  7  4
   0.191511519908E-01 13 11 12  8
   0.162973308750E-02 13 11 12  9
  -0.205065228184E-01 13 11 12 10
  -0.107476379727E-01 13 11 12 11
  -0.326847916387E-01 13 11 13  8
  -0.777325227102E-02 13 11 13  9
   0.104429006612E-01 13 11 13 10
   0.442937115040E-01 13 11 13 11
   0.803243193700E-02 14  8  5  1
  -0.963968572988E-03 14  8  5  2
  -0.711047598663E-02 14  8  5  3
  -0.150748385371E-01 14  8  5  4
  -0.111728115715E-01 14  8  6  1
   0.134363044553E-01 14  8  6  2
  -0.874544597619E-02 14  8  6  3
   0.707618080506E-02 14  8  6  4
  -0.148803145605E-01 14  8  7  1
  -0.735557242891E-02 14  8  7  2
  -0.628343242442E-02 14  8  7  3
  -0.825742123657E-03 14  8  7  4
   0.602271650149E-03 14  8 12  8
  -0.672370389755E-02 14  8 12  9
  -0.792189373443E-02 14  8 12 10
   0.147667771344E-01 14  8 12 11
   0.815187106715E-02 14  8 13  8
   0.997808518100E-02 14  8 13  9
  -0.131200539452E-01 14  8 13 10
  -0.115688300883E-01 14  8 13 11
   0.165966125919E-01 14  8 14  8
   0.151056478864E-01 14  9  5  1
  -0.564610222119E-02 14  9  5  2
   0.200995327249E-01 14  9  5  3
   0.676624842505E-02 14  9  5  4
  -0.188294775015E-01 14  9  6  1
  -0.163774399567E-02 14  9  6  2
   0.160437622826E-02 14  9  6  3
   0.148484594999E-01 14  9  6  4
   0.592621039012E-02 14  9  7  1
   0.209955071399E-01 14  9  7  2
   0.875938276169E-02 14  9  7  3
   0.182739356307E-01 14  9  7  4
  -0.182856636742E-01 14  9 12  8
   0.791447859716E-02 14  9 12  9
   0.211556921504E-01 14  9 12 10
  -0.676263279017E-02 14  9 12 11
   0.169633630808E-01 14  9 13  8
   0.244021789976E-03 14  9 13  9
   0.160248864735E-02 14  9 13 10
  -0.199774557871E-01 14  9 13 11
  -0.609481120449E-02 14  9 14  8
   0.214842728724E-01 14  9 14  9
   0.408301693654E-01 14 10  5  1
   0.635563503121E-01 14 10  5  2
  -0.567886707570E-02 14 10  5  3
   0.123813267101E-02 14 10  5  4
   0.136928351423E-01 14 10  6  1
   0.555521623910E-01 14 10  6  2
  -0.348703418675E-01 14 10  6  3
  -0.134161949926E-01 14 10  6  4
   0.460672053783E-02 14 10  7  1
  -0.163678684548E-01 14 10  7  2
   0.561511661330E-01 14 10  7  3
   0.488237600087E-01 14 10  7  4
  -0.473382576608E-01 14 10 12  8
   0.532669727782E-01 14 10 12  9
  -0.164026257620E-01 14 10 12 10
  -0.412634054482E-02 14 10 12 11
  -0.133569459384E-01 14 10 13  8
   0.338444396987E-01 14 10 13  9
  -0.584649694598E-01 14 10 13 10
   0.170976646941E-01 14 10 13 11
  -0.135914708753E-02 14 10 14  8
  -0.612819460453E-02 14 10 14  9
   0.683106386025E-01 14 10 14 10
  -0.627786562145E-01 14 11  5  1
  -0.429136558728E-01 14 11  5  2
  -0.159194805220E-01 14 11  5  3
   0.874605122372E-02 14 11  5  4
   0.271272700082E-01 14 11  6  1
  -0.574971893728E-01 14 11  6  2
   0.381188246280E-01 14 11  6  3
  -0.199084188654E-01 14 11  6  4
   0.522046432396E-02 14 11  7  1
  -0.656443590069E-02 14 11  7  2
  -0.488604788909E-01 14 11  7  3
  -0.645226971275E-01 14 11  7  4
   0.617683311365E-01 14 11 12  8
  -0.468249884700E-01 14 11 12  9
  -0.698392751243E-02 14 11 12 10
  -0.537570644604E-02 14 11 12 11
  -0.202768252801E-01 14 11 13  8
  -0.372996858352E-01 14 11 13  9
   0.615329637844E-01 14 11 13 10
   0.288164780141E-01 14 11 13 11
  -0.868930979167E-02 14 11 14  8
  -0.158365379551E-01 14 11 14  9
  -0.440988989515E-01 14 11 14 10
   0.686734665818E-01 14 11 14 11
   0.538794619035E-01  8  1  8  1
  -0.102960820026E-01  8  2  8  1
   0.199166054645E-01  8  2  8  2
  -0.599549923557E-02  8  3  8  1
   0.155547992251E-01  8  3  8  2
   0.273213577622E-01  8  3  8  3
   0.248659070790E-01  8  4  8  1
  -0.271747919338E-02  8  4  8  2
  -0.722441738591E-02  8  4  8  3
   0.279278539179E-01  8  4  8  4
   0.183938410060E-01  9  1  8  1
  -0.223509462490E-01  9  1  8  2
  -0.210027015176E-01  9  1  8  3
   0.788415906633E-02  9  1  8  4
   0.270766624422E-01  9  1  9  1
  -0.391870541707E-01  9  2  8  1
  -0.178455722869E-02  9  2  8  2
   0.574471591631E-02  9  2  8  3
  -0.226580729928E-01  9  2  8  4
  -0.600715181679E-02  9  2  9  1
   0.387263294662E-01  9  2  9  2
  -0.400449568171E-01  9  3  8  1
   0.125035555168E-01  9  3  8  2
   0.107922457697E-01  9  3  8  3
  -0.318108325984E-01  9  3  8  4
  -0.193822051408E-01  9  3  9  1
   0.280880554507E-01  9  3  9  2
   0.439523005043E-01  9  3  9  3
   0.741521190493E-02  9  4  8  1
  -0.162150794618E-01  9  4  8  2
  -0.266730698868E-01  9  4  8  3
   0.794346369617E-02  9  4  8  4
   0.213364435586E-01  9  4  9  1
  -0.536401669581E-02  9  4  9  2
  -0.121514707937E-01  9  4  9  3
   0.275924672778E-01  9  4  9  4
  -0.395472286503E-02 10  1  8  1
  -0.128807630759E-02 10  1  8  2
  -0.145325764999E-01 10  1  8  3
   0.354548467363E-02 10  1  8  4
   0.422476253505E-02 10  1  9  1
  -0.394500982324E-02 10  1  9  2
   0.101000435953E-03 10  1  9  3
   0.133182429067E-01 10  1  9  4
   0.124005091406E-01 10  1 10  1
  -0.111251304159E-02 10  2  8  1
   0.128305796282E-01 10  2  8  2
   0.216310468022E-02 10  2  8  3
  -0.875048461395E-02 10  2  8  4
  -0.115775259218E-01 10  2  9  1
  -0.104480257502E-01 10  2  9  2