 &FCI NORB= 18,NELEC=20,MS2= 0,
  ORBSYM=1,1,1,1,1,1,1,1,1,1,2,2,2,2,4,4,4,4
  ISYM=1
 &END
   0.618497923904             1     1     1     1
  -0.127490610255E-01         1     1     2     1
   0.164596077637E-02         2     1     2     1
   0.166773845384E-01         2     2     2     1
   0.131481794027             1     1     2     2
   0.756749677652             2     2     2     2
   0.849339789491E-01         1     1     3     1
   0.241033295614E-02         2     1     3     1
   0.103617730444E-01         2     2     3     1
   0.600275113982E-01         3     1     3     1
  -0.758935561598E-02         3     2     3     1
  -0.829401538677E-01         3     3     3     1
   0.148316706541E-01         1     1     3     2
  -0.231902017379E-02         2     1     3     2
  -0.475738363341E-01         2     2     3     2
   0.623289405057E-02         3     2     3     2
   0.380924240102E-01         3     3     3     2
   0.378827795164             1     1     3     3
  -0.178388067405E-01         2     1     3     3
   0.103454315264             2     2     3     3
   0.642886297383             3     3     3     3
  -0.201496047802E-01         1     1     4     1
   0.654819682574E-03         2     1     4     1
   0.155058260071E-01         2     2     4     1
  -0.438046314052E-02         3     1     4     1
  -0.167476020937E-02         3     2     4     1
  -0.870305748819E-02         3     3     4     1
   0.334103416255E-02         4     1     4     1
   0.140266558163E-02         4     2     4     1
   0.108262167090E-02         4     3     4     1
   0.276785028456E-01         4     4     4     1
  -0.180965345781E-02         1     1     4     2
   0.749410554377E-03         2     1     4     2
   0.235575207858E-01         2     2     4     2
  -0.663028142712E-03         3     1     4     2
  -0.161379432410E-02         3     2     4     2
  -0.287655101297E-03         3     3     4     2
   0.130766545330E-01         4     2     4     2
  -0.585647426769E-03         4     3     4     2
   0.322150836445E-02         4     4     4     2
  -0.713625002053E-02         1     1     4     3
   0.148124912341E-03         2     1     4     3
   0.370586352826E-02         2     2     4     3
  -0.160181928734E-02         3     1     4     3
  -0.479330526132E-03         3     2     4     3
  -0.313982329811E-02         3     3     4     3
   0.439871111118E-03         4     3     4     3
   0.932537772150E-02         4     4     4     3
   0.188157132708             1     1     4     4
   0.898165253098E-02         2     1     4     4
   0.387282853092             2     2     4     4
   0.225605924865E-01         3     1     4     4
  -0.183047247817E-01         3     2     4     4
   0.128290391556             3     3     4     4
   0.635173069874             4     4     4     4
  -0.651804064746E-01         1     1     5     1
   0.108350209638E-01         2     1     5     1
   0.137190587124E-01         2     2     5     1
   0.917057237946E-02         3     1     5     1
  -0.319563923129E-02         3     2     5     1
  -0.618949543083E-01         3     3     5     1
  -0.153809010574E-02         4     1     5     1
  -0.117228357427E-02         4     2     5     1
  -0.847910175708E-03         4     3     5     1
   0.324563176347E-01         4     4     5     1
   0.136354471300             5     1     5     1
  -0.186257752225E-02         5     2     5     1
   0.425584991900E-01         5     3     5     1
  -0.811668531163E-02         5     4     5     1
  -0.870705372788E-02         5     5     5     1
   0.294906194824E-01         1     1     5     2
  -0.154064263084E-02         2     1     5     2
  -0.429279096020E-01         2     2     5     2
   0.589100772231E-02         3     1     5     2
   0.392537271203E-02         3     2     5     2
   0.122867182032E-01         3     3     5     2
  -0.225725620479E-02         4     1     5     2
  -0.134578131101E-02         4     2     5     2
  -0.718149518375E-03         4     3     5     2
  -0.944473660441E-02         4     4     5     2
   0.517036939918E-02         5     2     5     2
   0.827062338852E-03         5     3     5     2
  -0.253366798299E-02         5     4     5     2
   0.313933004941E-01         5     5     5     2
  -0.297952662157E-02         1     1     5     3
   0.400501118546E-02         2     1     5     3
   0.110822977967E-01         2     2     5     3
   0.164167103682E-01         3     1     5     3
  -0.380106081807E-02         3     2     5     3
  -0.526689706536E-01         3     3     5     3
  -0.127848959135E-02         4     1     5     3
  -0.413299579798E-03         4     2     5     3
  -0.497277982545E-03         4     3     5     3
   0.173959838995E-01         4     4     5     3
   0.221804580781E-01         5     3     5     3
  -0.344981073697E-02         5     4     5     3
   0.180410253693E-01         5     5     5     3
  -0.174530777755E-01         1     1     5     4
   0.181872191495E-03         2     1     5     4
   0.170912325102E-01         2     2     5     4
  -0.471074394940E-02         3     1     5     4
  -0.174284379312E-02         3     2     5     4
  -0.616287652080E-02         3     3     5     4
   0.388759183667E-02         4     1     5     4
   0.100480152633E-02         4     2     5     4
   0.133171002331E-02         4     3     5     4
   0.291095750149E-01         4     4     5     4
   0.521017313013E-02         5     4     5     4
  -0.232829019886E-01         5     5     5     4
   0.602779974448             1     1     5     5
  -0.771106967693E-02         2     1     5     5
   0.146837543928             2     2     5     5
   0.950520224637E-01         3     1     5     5
   0.122392058926E-01         3     2     5     5
   0.344229422870             3     3     5     5
  -0.215223806072E-01         4     1     5     5
  -0.280355623548E-02         4     2     5     5
  -0.775632180501E-02         4     3     5     5
   0.217075614465             4     4     5     5
   0.649104451888             5     5     5     5
  -0.108295131328E-01         1     1     6     1
   0.329226607120E-03         2     1     6     1
   0.719639638126E-02         2     2     6     1
  -0.224490815446E-02         3     1     6     1
  -0.851282101071E-03         3     2     6     1
  -0.501965916796E-02         3     3     6     1
   0.117323113366E-02         4     1     6     1
  -0.497249769091E-03         4     2     6     1
   0.470051641464E-03         4     3     6     1
   0.788762180196E-02         4     4     6     1
  -0.815209535830E-03         5     1     6     1
  -0.117482597332E-02         5     2     6     1
  -0.635444553935E-03         5     3     6     1
   0.144289930616E-02         5     4     6     1
  -0.114310402029E-01         5     5     6     1
   0.605977740312E-03         6     1     6     1
   0.159768781654E-02         6     2     6     1
   0.545007193913E-04         6     3     6     1
  -0.490087826929E-03         6     4     6     1
   0.474679679552E-03         6     5     6     1
   0.964655913299E-02         6     6     6     1
  -0.992552897320E-02         1     1     6     2
  -0.141873497903E-02         2     1     6     2
  -0.890041446143E-01         2     2     6     2
  -0.156770952911E-02         3     1     6     2
   0.610564846803E-02         3     2     6     2
  -0.601519356733E-02         3     3     6     2
  -0.357765199046E-02         4     1     6     2
  -0.242285836438E-01         4     2     6     2
   0.784795961961E-03         4     3     6     2
  -0.438697238126E-01         4     4     6     2
  -0.245339530699E-02         5     1     6     2
   0.591402670018E-02         5     2     6     2
  -0.168360353996E-02         5     3     6     2
  -0.177436956869E-02         5     4     6     2
  -0.125522357720E-01         5     5     6     2
   0.856188506659E-01         6     2     6     2
  -0.653044650928E-02         6     3     6     2
  -0.300123978123E-01         6     4     6     2
  -0.701628014788E-02         6     5     6     2
   0.405573755463E-01         6     6     6     2
  -0.254378952898E-02         1     1     6     3
   0.137935943495E-03         2     1     6     3
   0.854198237704E-02         2     2     6     3
  -0.104535820305E-02         3     1     6     3
  -0.596307341838E-03         3     2     6     3
   0.281328424520E-03         3     3     6     3
   0.679460757298E-03         4     1     6     3
   0.184912891866E-02         4     2     6     3
   0.884954716324E-04         4     3     6     3
   0.582950429046E-02         4     4     6     3
  -0.441365652003E-03         5     1     6     3
  -0.801488730582E-03         5     2     6     3
  -0.322399717467E-03         5     3     6     3
   0.633223656436E-03         5     4     6     3
  -0.276571827310E-02         5     5     6     3
   0.559591127773E-03         6     3     6     3
   0.255476110991E-02         6     4     6     3
   0.730083394458E-03         6     5     6     3
  -0.137286395729E-02         6     6     6     3
   0.232141990428E-01         1     1     6     4
  -0.118001756936E-02         2     1     6     4
  -0.482594220093E-01         2     2     6     4
   0.437044247485E-02         3     1     6     4
   0.451653237884E-02         3     2     6     4
   0.119202866189E-01         3     3     6     4
   0.604528074533E-02         4     1     6     4
   0.643734898383E-02         4     2     6     4
   0.146773180113E-02         4     3     6     4
   0.103477775937             4     4     6     4
   0.667474090236E-02         5     1     6     4
   0.592584468340E-02         5     2     6     4
   0.275632414030E-02         5     3     6     4
   0.534001787222E-02         5     4     6     4
   0.286482600429E-01         5     5     6     4
   0.627963053189E-01         6     4     6     4
   0.255687996851E-02         6     5     6     4
  -0.957102912193E-01         6     6     6     4
  -0.757359053032E-02         1     1     6     5
   0.233246731370E-03         2     1     6     5
   0.160996432303E-01         2     2     6     5
  -0.204386307659E-02         3     1     6     5
  -0.139827066251E-02         3     2     6     5
  -0.270890160779E-02         3     3     6     5
   0.165380489792E-02         4     1     6     5
   0.209703082589E-02         4     2     6     5
   0.428999523026E-03         4     3     6     5
   0.121370180901E-01         4     4     6     5
  -0.340319391675E-02         5     1     6     5
  -0.176058636078E-02         5     2     6     5
  -0.138124870359E-02         5     3     6     5
   0.200926510752E-02         5     4     6     5
  -0.990792601930E-02         5     5     6     5
   0.131895907435E-02         6     5     6     5
   0.532938065943E-02         6     6     6     5
   0.117095463742             1     1     6     6
   0.129374341317E-01         2     1     6     6
   0.567331706368             2     2     6     6
   0.925600891464E-02         3     1     6     6
  -0.346435717907E-01         3     2     6     6
   0.917583972856E-01         3     3     6     6
   0.897457973234E-02         4     1     6     6
  -0.185256205044E-01         4     2     6     6
   0.494711819390E-02         4     3     6     6
   0.318818065965             4     4     6     6
   0.120032006608E-01         5     1     6     6
  -0.305663372727E-01         5     2     6     6
   0.920144580275E-02         5     3     6     6
   0.127762069333E-01         5     4     6     6
   0.129612934287             5     5     6     6
   0.641116879731             6     6     6     6
  -0.289106720843E-01         1     1     7     1
  -0.269637123849E-03         2     1     7     1
  -0.162452670479E-02         2     2     7     1
  -0.243214063539E-01         3     1     7     1
   0.265572817207E-02         3     2     7     1
   0.182958312497E-01         3     3     7     1
   0.815167071028E-03         4     1     7     1
  -0.173246259824E-03         4     2     7     1
   0.409591859608E-03         4     3     7     1
  -0.241702729958E-02         4     4     7     1
   0.837944275122E-02         5     1     7     1
  -0.773423126900E-04         5     2     7     1
   0.848568927641E-02         5     3     7     1
  -0.389887534784E-03         5     4     7     1
  -0.895873950248E-02         5     5     7     1
   0.528624156938E-03         6     1     7     1
   0.303047382855E-03         6     2     7     1
   0.254780498310E-03         6     3     7     1
  -0.386607840732E-03         6     4     7     1
  -0.171254293666E-03         6     5     7     1
  -0.121706765933E-02         6     6     7     1
   0.506860942320E-01         7     1     7     1
  -0.415155013213E-02         7     2     7     1
  -0.118406865791E-01         7     3     7     1
  -0.103417570852E-02         7     4     7     1
  -0.320779001781E-01         7     5     7     1
  -0.540885559709E-03         7     6     7     1
  -0.479270716149E-02         7     7     7     1
  -0.612294379287E-03         1     1     7     2
   0.377293421950E-03         2     1     7     2
   0.587126198901E-02         2     2     7     2
   0.172420279028E-02         3     1     7     2
  -0.636635427324E-03         3     2     7     2
  -0.163055038271E-02         3     3     7     2
  -0.563908981484E-03         4     1     7     2
  -0.136943687076E-02         4     2     7     2
  -0.107767550585E-03         4     3     7     2
  -0.488108411544E-02         4     4     7     2
   0.369924657901E-02         5     1     7     2
  -0.684557619885E-03         5     2     7     2
   0.257343236690E-05         5     3     7     2
  -0.618193556951E-03         5     4     7     2
   0.870849359556E-03         5     5     7     2
  -0.121375080543E-04         6     1     7     2
   0.116867371718E-02         6     2     7     2
  -0.137755690542E-03         6     3     7     2
  -0.417122624766E-02         6     4     7     2
  -0.191373294825E-03         6     5     7     2
   0.963265591345E-02         6     6     7     2
   0.149607196354E-02         7     2     7     2
   0.543160943719E-02         7     3     7     2
  -0.733696208500E-05         7     4     7     2
   0.440365243084E-02         7     5     7     2
  -0.153124545728E-03         7     6     7     2
  -0.643133997338E-03         7     7     7     2
  -0.730149968125E-01         1     1     7     3
   0.236028609412E-02         2     1     7     3
  -0.693762656385E-02         2     2     7     3
  -0.227841248171E-01         3     1     7     3
   0.227034136883E-02         3     2     7     3
   0.195796314256E-01         3     3     7     3
   0.209454543656E-02         4     1     7     3
   0.129064623516E-03         4     2     7     3
   0.531300200508E-03         4     3     7     3
  -0.987201723329E-02         4     4     7     3
   0.343141674611E-01         5     1     7     3
  -0.460428156271E-02         5     2     7     3
  -0.739772620319E-02         5     3     7     3
   0.605730408653E-03         5     4     7     3
  -0.604338114919E-01         5     5     7     3
   0.104695738788E-02         6     1     7     3
   0.602697660537E-03         6     2     7     3
   0.426671149529E-03         6     3     7     3
  -0.124511970367E-02         6     4     7     3
   0.224246382047E-03         6     5     7     3
  -0.619849710677E-02         6     6     7     3
   0.808492790632E-01         7     3     7     3
  -0.432163387549E-03         7     4     7     3
  -0.115251256917E-01         7     5     7     3
   0.242157494422E-04         7     6     7     3
  -0.240301439968E-01         7     7     7     3
   0.610044969019E-03         1     1     7     4
  -0.257122978577E-03         2     1     7     4
  -0.567770786788E-02         2     2     7     4
   0.210286732846E-03         3     1     7     4
   0.364485330243E-03         3     2     7     4
  -0.708946621550E-04         3     3     7     4
  -0.202678761604E-03         4     1     7     4
  -0.115222963539E-02         4     2     7     4
   0.232834349019E-04         4     3     7     4
   0.761884821325E-03         4     4     7     4
  -0.111965432713E-02         5     1     7     4
   0.339399462779E-03         5     2     7     4
  -0.423977163902E-03         5     3     7     4
  -0.377344768343E-03         5     4     7     4
  -0.633592579569E-03         5     5     7     4
  -0.747709715830E-04         6     1     7     4
   0.661050288113E-04         6     2     7     4
  -0.208081541466E-04         6     3     7     4
   0.145703402303E-02         6     4     7     4
  -0.133172092280E-03         6     5     7     4
  -0.351342414414E-02         6     6     7     4
   0.554341095334E-03         7     4     7     4
  -0.717008380719E-03         7     5     7     4
   0.138107919976E-03         7     6     7     4
  -0.173162413940E-03         7     7     7     4
   0.802952646416E-01         1     1     7     5
   0.339598221276E-02         2     1     7     5
   0.684784021046E-02         2     2     7     5
   0.513441857448E-01         3     1     7     5
  -0.410552795188E-02         3     2     7     5
  -0.423365604199E-01         3     3     7     5
  -0.530292410427E-02         4     1     7     5
  -0.845760344652E-03         4     2     7     5
  -0.205907744471E-02         4     3     7     5
   0.178162308669E-01         4     4     7     5
   0.378781724391E-01         5     1     7     5
   0.608682810714E-02         5     2     7     5
   0.176525240984E-01         5     3     7     5
  -0.702020508352E-02         5     4     7     5
   0.108753547930             5     5     7     5
  -0.273136045228E-02         6     1     7     5
  -0.121568076071E-02         6     2     7     5
  -0.117237990643E-02         6     3     7     5
   0.387571517099E-02         6     4     7     5
  -0.318090218522E-02         6     5     7     5
   0.604743508393E-02         6     6     7     5
   0.813421830699E-01         7     5     7     5
  -0.539513145412E-03         7     6     7     5
   0.222870779780E-01         7     7     7     5
  -0.234120445131E-04         1     1     7     6
  -0.129378042776E-03         2     1     7     6
  -0.470503569344E-02         2     2     7     6
  -0.110698696270E-03         3     1     7     6
   0.351826740252E-03         3     2     7     6
   0.256950497613E-03         3     3     7     6
  -0.349821393915E-04         4     1     7     6
  -0.935082266254E-03         4     2     7     6
   0.655940057989E-04         4     3     7     6
   0.194186930911E-03         4     4     7     6
  -0.811322933693E-03         5     1     7     6
   0.335759427009E-03         5     2     7     6
  -0.394826803267E-03         5     3     7     6
   0.950876062046E-05         5     4     7     6
  -0.893192980637E-03         5     5     7     6
   0.425622814324E-04         6     1     7     6
   0.304168481923E-02         6     2     7     6
  -0.226021601238E-03         6     3     7     6
   0.323769038590E-03         6     4     7     6
  -0.262157916139E-03         6     5     7     6
  -0.159182696908E-02         6     6     7     6
   0.247951626462E-03         7     6     7     6
  -0.358341061068E-04         7     7     7     6
   0.509120324389             1     1     7     7
  -0.165765876581E-01         2     1     7     7
   0.114657429423             2     2     7     7
   0.208472426772E-02         3     1     7     7
   0.263363286397E-01         3     2     7     7
   0.508488863554             3     3     7     7
  -0.144528109019E-01         4     1     7     7
  -0.907952551450E-03         4     2     7     7
  -0.510906194009E-02         4     3     7     7
   0.152028905624             4     4     7     7
  -0.799531518837E-01         5     1     7     7
   0.221200397506E-01         5     2     7     7
  -0.298248774781E-01         5     3     7     7
  -0.113340525603E-01         5     4     7     7
   0.488625491780             5     5     7     7
  -0.793420793257E-02         6     1     7     7
  -0.758604307785E-02         6     2     7     7
  -0.114679741009E-02         6     3     7     7
   0.163683711698E-01         6     4     7     7
  -0.502420939192E-02         6     5     7     7
   0.101976861535             6     6     7     7
   0.550377562538             7     7     7     7
  -0.910576554856E-01         1     1     8     1
  -0.525394922157E-04         2     1     8     1
   0.303344157634E-02         2     2     8     1
  -0.320066142046E-01         3     1     8     1
  -0.926478094671E-03         3     2     8     1
  -0.193271501177E-01         3     3     8     1
   0.523109286823E-02         4     1     8     1
   0.965881563097E-04         4     2     8     1
   0.200487708441E-02         4     3     8     1
   0.784994244474E-02         4     4     8     1
  -0.169330816033E-01         5     1     8     1
  -0.534437678088E-02         5     2     8     1
  -0.719562088301E-02         5     3     8     1
   0.487714476384E-02         5     4     8     1
  -0.947151291073E-01         5     5     8     1
   0.270842757541E-02         6     1     8     1
  -0.316124042209E-03         6     2     8     1
   0.104707318617E-02         6     3     8     1
   0.157214054181E-02         6     4     8     1
   0.243591898508E-02         6     5     8     1
   0.274420148187E-02         6     6     8     1
   0.233166403557E-01         7     1     8     1
  -0.322563606923E-02         7     2     8     1
   0.824325590517E-02         7     3     8     1
   0.994104831484E-03         7     4     8     1
  -0.535763343457E-01         7     5     8     1
   0.465665392828E-03         7     6     8     1
  -0.615517854021E-01         7     7     8     1
   0.580228696571E-01         8     1     8     1
   0.159223441410E-02         8     2     8     1
   0.224878395904E-01         8     3     8     1
  -0.272606426575E-02         8     4     8     1
   0.412377677952E-01         8     5     8     1
  -0.178802155735E-02         8     6     8     1
   0.418459241827E-02         8     7     8     1
  -0.762106908130E-01         8     8     8     1
  -0.247921830873E-02         1     1     8     2
  -0.355169912604E-03         2     1     8     2
  -0.960330145059E-02         2     2     8     2
  -0.784184310420E-03         3     1     8     2
   0.655503355675E-03         3     2     8     2
   0.280015800637E-03         3     3     8     2
  -0.158039183522E-02         4     1     8     2
  -0.529314422157E-02         4     2     8     2
  -0.111167882390E-03         4     3     8     2
  -0.150509675441E-01         4     4     8     2
   0.138268744958E-03         5     1     8     2
   0.158485554028E-03         5     2     8     2
  -0.383828675158E-03         5     3     8     2
  -0.175008556832E-02         5     4     8     2
  -0.279481743004E-02         5     5     8     2
   0.739181619502E-04         6     1     8     2
   0.923318276870E-02         6     2     8     2
  -0.767520886069E-03         6     3     8     2
  -0.886990170158E-02         6     4     8     2
  -0.995724715433E-03         6     5     8     2
   0.152073356423E-01         6     6     8     2
  -0.575177417387E-03         7     1     8     2
   0.197332087574E-02         7     2     8     2
   0.104485100814E-03         7     3     8     2
   0.668864660816E-03         7     4     8     2
  -0.960900476966E-03         7     5     8     2
  -0.126860715312E-03         7     6     8     2
  -0.198474719388E-02         7     7     8     2
   0.805830472302E-02         8     2     8     2
   0.251719643263E-03         8     3     8     2
  -0.364054876478E-02         8     4     8     2
   0.203560094617E-02         8     5     8     2
  -0.329400282879E-02         8     6     8     2
   0.348415642444E-03         8     7     8     2
  -0.273545713001E-02         8     8     8     2
  -0.363548260789E-01         1     1     8     3
  -0.657854579284E-03         2     1     8     3
   0.129449098844E-02         2     2     8     3
  -0.216294523690E-01         3     1     8     3
   0.187477120876E-02         3     2     8     3
   0.232621784327E-01         3     3     8     3
   0.231062935040E-02         4     1     8     3
   0.494551372806E-03         4     2     8     3
   0.823594335492E-03         4     3     8     3
   0.269552308742E-02         4     4     8     3
  -0.704703228747E-02         5     1     8     3
  -0.248005700500E-02         5     2     8     3
  -0.702011643511E-02         5     3     8     3
   0.221446320325E-02         5     4     8     3
  -0.389329522164E-01         5     5     8     3
   0.111045294013E-02         6     1     8     3
  -0.781216475890E-03         6     2     8     3
   0.573639866935E-03         6     3     8     3
   0.105152588122E-02         6     4     8     3
   0.109306329085E-02         6     5     8     3
  -0.884730646486E-03         6     6     8     3
   0.108528597991E-01         7     1     8     3
  -0.160967116631E-02         7     2     8     3
   0.326020512550E-02         7     3     8     3
   0.303972922231E-03         7     4     8     3
  -0.238975246374E-01         7     5     8     3
   0.195505710092E-03         7     6     8     3
  -0.139815245157E-01         7     7     8     3
   0.131400703149E-01         8     3     8     3
  -0.746378361969E-03         8     4     8     3
   0.155477814693E-01         8     5     8     3
  -0.440944853546E-03         8     6     8     3
   0.117160034762E-02         8     7     8     3
  -0.321612894505E-01         8     8     8     3
  -0.503301263962E-02         1     1     8     4
   0.456669991276E-03         2     1     8     4
   0.231570910697E-01         2     2     8     4
  -0.492672504312E-03         3     1     8     4
  -0.201576083169E-02         3     2     8     4
  -0.348456344166E-02         3     3     8     4
   0.493285779479E-02         4     1     8     4
   0.198069152674E-02         4     2     8     4
   0.158510968728E-02         4     3     8     4
   0.470459092555E-01         4     4     8     4
  -0.221149407715E-02         5     1     8     4
  -0.221060905567E-02         5     2     8     4
  -0.875430639511E-03         5     3     8     4
   0.696348075841E-02         5     4     8     4
  -0.738599873062E-02         5     5     8     4
   0.147699549543E-02         6     1     8     4
  -0.596206197994E-02         6     2     8     4
   0.973076978799E-03         6     3     8     4
   0.111638356511E-01         6     4     8     4
   0.268248403787E-02         6     5     8     4
   0.138972418726E-01         6     6     8     4
  -0.702576491485E-03         7     1     8     4
  -0.399119922334E-03         7     2     8     4
   0.272266738726E-03         7     3     8     4
  -0.127517570500E-02         7     4     8     4
   0.573828259907E-03         7     5     8     4
  -0.442929915007E-03         7     6     8     4
  -0.306728335530E-02         7     7     8     4
   0.138229533510E-01         8     4     8     4
  -0.372462608122E-02         8     5     8     4
   0.423512867259E-02         8     6     8     4
   0.735436861229E-03         8     7     8     4
  -0.565463050046E-02         8     8     8     4
  -0.805793638927E-01         1     1     8     5
   0.186925552771E-02         2     1     8     5
   0.122827263992E-01         2     2     8     5
  -0.131865615836E-01         3     1     8     5
  -0.394329459628E-02         3     2     8     5
  -0.457440795691E-01         3     3     8     5
   0.502286642727E-02         4     1     8     5
   0.108600040083E-03         4     2     8     5
   0.180827230362E-02         4     3     8     5
   0.288968906883E-01         4     4     8     5
  -0.575857603471E-02         5     1     8     5
  -0.568389125614E-02         5     2     8     5
  -0.575629816262E-02         5     3     8     5
   0.421413551474E-02         5     4     8     5
  -0.925922271628E-01         5     5     8     5
   0.239965809866E-02         6     1     8     5
  -0.258138011526E-02         6     2     8     5
   0.979279912358E-03         6     3     8     5
   0.647189180871E-02         6     4     8     5
   0.233628781354E-02         6     5     8     5
   0.838151149340E-02         6     6     8     5
  -0.120814860938E-01         7     1     8     5
  -0.111976553782E-02         7     2     8     5
   0.751826857762E-02         7     3     8     5
   0.219708593021E-02         7     4     8     5
  -0.264859139332E-01         7     5     8     5
   0.975245744666E-03         7     6     8     5
  -0.734257922320E-01         7     7     8     5
   0.604948284073E-01         8     5     8     5
  -0.169530599325E-02         8     6     8     5
   0.913256542888E-02         8     7     8     5
  -0.543937599294E-01         8     8     8     5
   0.118006222866E-02         1     1     8     6
   0.988215191739E-04         2     1     8     6
   0.323729853245E-03         2     2     8     6
   0.520078135284E-03         3     1     8     6
  -0.192219422950E-04         3     2     8     6
  -0.169131328431E-04         3     3     8     6
   0.152400048813E-02         4     1     8     6
  -0.894747909987E-04         4     2     8     6
   0.537937691595E-03         4     3     8     6
   0.164089143265E-01         4     4     8     6
  -0.187358323811E-03         5     1     8     6
   0.175697501028E-03         5     2     8     6
  -0.618393145131E-04         5     3     8     6
   0.223141110542E-02         5     4     8     6
   0.758914982658E-03         5     5     8     6
   0.406587366515E-03         6     1     8     6
   0.330359902908E-02         6     2     8     6
  -0.114950431816E-03         6     3     8     6
   0.564006578834E-02         6     4     8     6
   0.264770881224E-03         6     5     8     6
  -0.330498565059E-02         6     6     8     6
  -0.400039378603E-03         7     1     8     6