 &FCI NORB=4,NELEC=2,MS2=0,
  ORBSYM=1,1,1,1
  ISYM=1
 &END
   0.649702723853       1     1     1     1
  -0.167073344018       1     1     2     1
   0.109300885764       2     1     2     1
  -0.119851267485       2     2     2     1
   0.531826350603       1     1     2     2
   0.463674286178       2     2     2     2
   0.801465148695E-01   3     1     3     1
   0.192573520766E-01   3     1     3     2
   0.359193058681E-01   3     2     3     2
   0.433764500363       1     1     3     3
  -0.500848028627E-01   2     1     3     3
   0.381382374889       2     2     3     3
   0.385855813983       3     3     3     3
  -0.793764546306E-01   3     1     4     1
   0.218346809057E-01   3     2     4     1
   0.137553175046       4     1     4     1
   0.833226832200E-01   3     1     4     2
  -0.270771262413E-02   3     2     4     2
  -0.123112450743       4     1     4     2
   0.127594100045       4     2     4     2
  -0.143345130794       1     1     4     3
   0.733156940616E-01   2     1     4     3
  -0.984145436380E-01   2     2     4     3
  -0.548241399472E-01   3     3     4     3
   0.675771906037E-01   4     3     4     3
  -0.167748159247       4     4     4     3
   0.662820064425       1     1     4     4
  -0.201494810589       2     1     4     4
   0.552219756992       2     2     4     4
   0.442474250678       3     3     4     4
   0.740170356689       4     4     4     4
  -1.24509534216        1     1     0     0
   0.167073344018       2     1     0     0
  -0.178953017984       2     2     0     0
  -0.549284223834       3     3     0     0
   0.207313806957       4     3     0     0
   0.214479164774       4     4     0     0
   0.713753993350       0     0     0     0
