 &FCI NORB=4,NELEC=2,MS2=0,
  ORBSYM=1,1,1,1
  ISYM=1
 &END
  1.1        1     1     0     0
  2.2        2     2     0     0
  3.3        3     3     0     0
  4.4        4     4     0     0
