 &FCI NORB=  2,NELEC= 2,MS2= 0,
  ORBSYM=1,1,
  ISYM=1
 &END
   0.671731863562             1     1     1     1
  -0.278856798763E-15         1     1     2     1
   0.174453482135             2     1     2     1
  -0.622765727876E-15         2     2     2     1
   0.663109424832             1     1     2     2
   0.702615405649             2     2     2     2
   -1.27518567024             1     1     0     0
   0.409394740331E-15         2     1     0     0
  -0.475661387224             2     2     0     0
   0.755967443814             0     0     0     0
