 &FCI NORB=   6,NELEC= 6,MS2=0,
  ORBSYM=1,1,1,1,1,1,
  ISYM=1,
 &END
2.967428280942713e-01   0.000000000000000000E+00     1         1         1         1         
2.969964921855469e-17   0.000000000000000000E+00     2         1         1         1         
5.946430964447179e-03   0.000000000000000000E+00     2         1         2         1         
2.722543071522927e-01   0.000000000000000000E+00     2         2         1         1         
2.896226587366634e-17   0.000000000000000000E+00     2         2         2         1         
3.175879722281359e-01   0.000000000000000000E+00     2         2         2         2         
-3.173158343895392e-18  0.000000000000000000E+00     3         1         1         1         
3.164363721187413e-04   0.000000000000000000E+00     3         1         2         1         
-1.206042193772940e-17  0.000000000000000000E+00     3         1         2         2         
4.584176508435104e-03   0.000000000000000000E+00     3         1         3         1         
-3.475223066470779e-04  0.000000000000000000E+00     3         2         1         1         
-5.148945172142986e-18  0.000000000000000000E+00     3         2         2         1         
1.031095396370024e-08   0.000000000000000000E+00     3         2         2         2         
-3.525132029200314e-18  0.000000000000000000E+00     3         2         3         1         
2.262519930106974e-02   0.000000000000000000E+00     3         2         3         2         
2.737504291952448e-01   0.000000000000000000E+00     3         3         1         1         
2.661055073595147e-17   0.000000000000000000E+00     3         3         2         1         
2.723375398719879e-01   0.000000000000000000E+00     3         3         2         2         
-6.302110990253676e-18  0.000000000000000000E+00     3         3         3         1         
-4.364477160743517e-08  0.000000000000000000E+00     3         3         3         2         
3.175879928614845e-01   0.000000000000000000E+00     3         3         3         3         
-1.989745198935249e-17  0.000000000000000000E+00     4         1         1         1         
-1.495538973216875e-09  0.000000000000000000E+00     4         1         2         1         
1.909327508926614e-16   0.000000000000000000E+00     4         1         2         2         
-1.467128229984753e-09  0.000000000000000000E+00     4         1         3         1         
2.269372531806393e-16   0.000000000000000000E+00     4         1         3         2         
-2.048263894578430e-16  0.000000000000000000E+00     4         1         3         3         
5.535822698071859e-03   0.000000000000000000E+00     4         1         4         1         
-1.671627836331472e-08  0.000000000000000000E+00     4         2         1         1         
3.942136324303707e-16   0.000000000000000000E+00     4         2         2         1         
-1.048396910234631e-10  0.000000000000000000E+00     4         2         2         2         
4.249333535577798e-16   0.000000000000000000E+00     4         2         3         1         
1.685359484388458e-09   0.000000000000000000E+00     4         2         3         2         
1.884570357761074e-09   0.000000000000000000E+00     4         2         3         3         
-6.529538829354937e-18  0.000000000000000000E+00     4         2         4         1         
4.882384825736743e-02   0.000000000000000000E+00     4         2         4         2         
-1.632784870308076e-08  0.000000000000000000E+00     4         3         1         1         
4.728061386828914e-16   0.000000000000000000E+00     4         3         2         1         
8.697996010556237e-10   0.000000000000000000E+00     4         3         2         2         
-4.056750568196405e-16  0.000000000000000000E+00     4         3         3         1         
1.510556886745833e-09   0.000000000000000000E+00     4         3         3         2         
-1.682110739404823e-09  0.000000000000000000E+00     4         3         3         3         
-3.400912078277603e-17  0.000000000000000000E+00     4         3         4         1         
6.862144027519780e-03   0.000000000000000000E+00     4         3         4         2         
6.219635312624117e-02   0.000000000000000000E+00     4         3         4         3         
2.642269326179048e-01   0.000000000000000000E+00     4         4         1         1         
2.189488798027102e-17   0.000000000000000000E+00     4         4         2         1         
2.717023414281122e-01   0.000000000000000000E+00     4         4         2         2         
-1.093714887458270e-17  0.000000000000000000E+00     4         4         3         1         
9.027539271050371e-03   0.000000000000000000E+00     4         4         3         2         
2.892946950886859e-01   0.000000000000000000E+00     4         4         3         3         
8.498805805090058e-18   0.000000000000000000E+00     4         4         4         1         
-7.066219633472216e-10  0.000000000000000000E+00     4         4         4         2         
-1.180161307956590e-09  0.000000000000000000E+00     4         4         4         3         
2.826532153350965e-01   0.000000000000000000E+00     4         4         4         4         
5.440349884008000e-17   0.000000000000000000E+00     5         1         1         1         
-1.745107410043142e-10  0.000000000000000000E+00     5         1         2         1         
2.649660507772337e-16   0.000000000000000000E+00     5         1         2         2         
7.635325167581036e-11   0.000000000000000000E+00     5         1         3         1         
-2.096304511957389e-16  0.000000000000000000E+00     5         1         3         2         
-1.556185149821082e-16  0.000000000000000000E+00     5         1         3         3         
1.109228562777380e-03   0.000000000000000000E+00     5         1         4         1         
7.711016843213593e-18   0.000000000000000000E+00     5         1         4         2         
-1.988336281019004e-17  0.000000000000000000E+00     5         1         4         3         
-1.256381852169217e-16  0.000000000000000000E+00     5         1         4         4         
4.757272376368334e-03   0.000000000000000000E+00     5         1         5         1         
-6.968670735150717e-09  0.000000000000000000E+00     5         2         1         1         
4.541606689865640e-16   0.000000000000000000E+00     5         2         2         1         
1.193896271322356e-09   0.000000000000000000E+00     5         2         2         2         
-3.957842299807808e-16  0.000000000000000000E+00     5         2         3         1         
2.461790318131035e-10   0.000000000000000000E+00     5         2         3         2         
-1.867388900287247e-09  0.000000000000000000E+00     5         2         3         3         
-2.116343010927644e-17  0.000000000000000000E+00     5         2         4         1         
-6.862089706190379e-03  0.000000000000000000E+00     5         2         4         2         
2.086701653055485e-02   0.000000000000000000E+00     5         2         4         3         
-6.942713935776281e-10  0.000000000000000000E+00     5         2         4         4         
-1.694686595881941e-17  0.000000000000000000E+00     5         2         5         1         
6.219624511220317e-02   0.000000000000000000E+00     5         2         5         2         
1.165617282832503e-08   0.000000000000000000E+00     5         3         1         1         
-3.902602652267072e-16  0.000000000000000000E+00     5         3         2         1         
1.812442935324067e-10   0.000000000000000000E+00     5         3         2         2         
-4.217167642303603e-16  0.000000000000000000E+00     5         3         3         1         
-2.562826006786915e-09  0.000000000000000000E+00     5         3         3         2         
-1.666132144742845e-09  0.000000000000000000E+00     5         3         3         3         
-3.282010350762784e-18  0.000000000000000000E+00     5         3         4         1         
-3.423956466727348e-02  0.000000000000000000E+00     5         3         4         2         
6.862133738505061e-03   0.000000000000000000E+00     5         3         4         3         
1.678495333324980e-11   0.000000000000000000E+00     5         3         4         4         
-5.080408648968361e-18  0.000000000000000000E+00     5         3         5         1         
-6.862120910692725e-03  0.000000000000000000E+00     5         3         5         2         
4.882380746267395e-02   0.000000000000000000E+00     5         3         5         3         
3.082887836455720e-03   0.000000000000000000E+00     5         4         1         1         
2.515313447907718e-18   0.000000000000000000E+00     5         4         2         1         
-9.027510512652829e-03  0.000000000000000000E+00     5         4         2         2         
-1.550776903259978e-18  0.000000000000000000E+00     5         4         3         1         
-8.796198840613693e-03  0.000000000000000000E+00     5         4         3         2         
9.027607652432070e-03   0.000000000000000000E+00     5         4         3         3         
-1.677956947224575e-16  0.000000000000000000E+00     5         4         4         1         
-4.281630205893954e-10  0.000000000000000000E+00     5         4         4         2         
-8.633840182725674e-11  0.000000000000000000E+00     5         4         4         3         
1.764153989938785e-08   0.000000000000000000E+00     5         4         4         4         
-1.427130323728534e-17  0.000000000000000000E+00     5         4         5         1         
7.472321416518491e-10   0.000000000000000000E+00     5         4         5         2         
7.135080851056829e-10   0.000000000000000000E+00     5         4         5         3         
1.283221819015752e-02   0.000000000000000000E+00     5         4         5         4         
2.620630668050980e-01   0.000000000000000000E+00     5         5         1         1         
2.658171661756130e-17   0.000000000000000000E+00     5         5         2         1         
2.892946271244188e-01   0.000000000000000000E+00     5         5         2         2         
-3.923904901672728e-18  0.000000000000000000E+00     5         5         3         1         
-9.027549395694940e-03  0.000000000000000000E+00     5         5         3         2         
2.717022779416238e-01   0.000000000000000000E+00     5         5         3         3         
-2.513197725008849e-17  0.000000000000000000E+00     5         5         4         1         
2.876053345100726e-10   0.000000000000000000E+00     5         5         4         2         
1.225930450314287e-09   0.000000000000000000E+00     5         5         4         3         
2.569887460898106e-01   0.000000000000000000E+00     5         5         4         4         
2.426388841452769e-16   0.000000000000000000E+00     5         5         5         1         
1.855925414396875e-09   0.000000000000000000E+00     5         5         5         2         
4.039196523945892e-10   0.000000000000000000E+00     5         5         5         3         
4.309124041346849e-08   0.000000000000000000E+00     5         5         5         4         
2.826531131445985e-01   0.000000000000000000E+00     5         5         5         5         
2.631663100300740e-03   0.000000000000000000E+00     6         1         1         1         
6.224377364763227e-20   0.000000000000000000E+00     6         1         2         1         
-9.638056482124322e-04  0.000000000000000000E+00     6         1         2         2         
1.630338873762026e-18   0.000000000000000000E+00     6         1         3         1         
-1.628273650960630e-04  0.000000000000000000E+00     6         1         3         2         
9.636793761281449e-04   0.000000000000000000E+00     6         1         3         3         
-1.648362745908853e-17  0.000000000000000000E+00     6         1         4         1         
-2.035740132956974e-09  0.000000000000000000E+00     6         1         4         2         
-2.527458462113691e-09  0.000000000000000000E+00     6         1         4         3         
-5.425386974630890e-04  0.000000000000000000E+00     6         1         4         4         
-2.958908872433561e-18  0.000000000000000000E+00     6         1         5         1         
2.068661571894794e-09   0.000000000000000000E+00     6         1         5         2         
1.438620209960353e-09   0.000000000000000000E+00     6         1         5         3         
-7.844370974891291e-04  0.000000000000000000E+00     6         1         5         4         
5.424370903468271e-04   0.000000000000000000E+00     6         1         5         5         
6.055763564239812e-03   0.000000000000000000E+00     6         1         6         1         
5.102465971267154e-18   0.000000000000000000E+00     6         2         1         1         
-1.819590169527630e-04  0.000000000000000000E+00     6         2         2         1         
-1.396890814562340e-18  0.000000000000000000E+00     6         2         2         2         
-3.074139985838995e-05  0.000000000000000000E+00     6         2         3         1         
-1.445743601536327e-19  0.000000000000000000E+00     6         2         3         2         
1.239115291654653e-17   0.000000000000000000E+00     6         2         3         3         
-7.807412876528190e-10  0.000000000000000000E+00     6         2         4         1         
1.393536734087840e-16   0.000000000000000000E+00     6         2         4         2         
-5.778772309473631e-17  0.000000000000000000E+00     6         2         4         3         
7.836718514625554e-18   0.000000000000000000E+00     6         2         4         4         
1.065243773379192e-09   0.000000000000000000E+00     6         2         5         1         
-2.129553232785682e-16  0.000000000000000000E+00     6         2         5         2         
-6.392171248830596e-17  0.000000000000000000E+00     6         2         5         3         
1.549183020925688e-18   0.000000000000000000E+00     6         2         5         4         
-6.219425012294147e-18  0.000000000000000000E+00     6         2         5         5         
3.073885713884841e-18   0.000000000000000000E+00     6         2         6         1         
1.890205019918717e-03   0.000000000000000000E+00     6         2         6         2         
-1.699947997083976e-17  0.000000000000000000E+00     6         3         1         1         
-3.074145122554928e-05  0.000000000000000000E+00     6         3         2         1         
-1.298284921205725e-18  0.000000000000000000E+00     6         3         2         2         
1.819563272403293e-04   0.000000000000000000E+00     6         3         3         1         
1.029160227345768e-17   0.000000000000000000E+00     6         3         3         2         
-4.886763895153592e-17  0.000000000000000000E+00     6         3         3         3         
-9.355455304012666e-10  0.000000000000000000E+00     6         3         4         1         
1.231123123475001e-16   0.000000000000000000E+00     6         3         4         2         
1.252434029332162e-16   0.000000000000000000E+00     6         3         4         3         
-2.529793632445032e-17  0.000000000000000000E+00     6         3         4         4         
5.477012905596020e-10   0.000000000000000000E+00     6         3         5         1         
8.068320851725660e-17   0.000000000000000000E+00     6         3         5         2         
-1.373108881981956e-16  0.000000000000000000E+00     6         3         5         3         
-1.696954363660787e-17  0.000000000000000000E+00     6         3         5         4         
-1.153722125274092e-17  0.000000000000000000E+00     6         3         5         5         
-1.978634177911281e-18  0.000000000000000000E+00     6         3         6         1         
-3.919095149569737e-10  0.000000000000000000E+00     6         3         6         2         
1.890207715675752e-03   0.000000000000000000E+00     6         3         6         3         
1.298960824956743e-16   0.000000000000000000E+00     6         4         1         1         
-1.481982718889963e-10  0.000000000000000000E+00     6         4         2         1         
2.127616832427987e-16   0.000000000000000000E+00     6         4         2         2         
-1.154293852406009e-09  0.000000000000000000E+00     6         4         3         1         
5.839292213298683e-17   0.000000000000000000E+00     6         4         3         2         
1.933670205823620e-16   0.000000000000000000E+00     6         4         3         3         
-5.802813186036677e-04  0.000000000000000000E+00     6         4         4         1         
7.594925587837616e-18   0.000000000000000000E+00     6         4         4         2         
-3.467090493212242e-17  0.000000000000000000E+00     6         4         4         3         
2.127446037230972e-16   0.000000000000000000E+00     6         4         4         4         
-8.390840300295623e-04  0.000000000000000000E+00     6         4         5         1         
-3.057257516582584e-17  0.000000000000000000E+00     6         4         5         2         
-6.405743577848378e-18  0.000000000000000000E+00     6         4         5         3         
-4.261175125141899e-17  0.000000000000000000E+00     6         4         5         4         
1.421291857472134e-16   0.000000000000000000E+00     6         4         5         5         
3.542972452025696e-19   0.000000000000000000E+00     6         4         6         1         
-2.364603922809194e-09  0.000000000000000000E+00     6         4         6         2         
-1.719231650888553e-09  0.000000000000000000E+00     6         4         6         3         
1.971724270342512e-03   0.000000000000000000E+00     6         4         6         4         
-2.142746852054905e-16  0.000000000000000000E+00     6         5         1         1         
5.115653745726280e-10   0.000000000000000000E+00     6         5         2         1         
-3.186020043372467e-16  0.000000000000000000E+00     6         5         2         2         
2.147536164173234e-10   0.000000000000000000E+00     6         5         3         1         
1.221408764874572e-17   0.000000000000000000E+00     6         5         3         2         
-2.500576876296655e-16  0.000000000000000000E+00     6         5         3         3         
-8.390829334376343e-04  0.000000000000000000E+00     6         5         4         1         
3.937364880200516e-18   0.000000000000000000E+00     6         5         4         2         
-5.494607786135451e-17  0.000000000000000000E+00     6         5         4         3         
-2.240902049694371e-16  0.000000000000000000E+00     6         5         4         4         
5.802785179335574e-04   0.000000000000000000E+00     6         5         5         1         
-5.248958818821123e-17  0.000000000000000000E+00     6         5         5         2         
-6.766716033467935e-18  0.000000000000000000E+00     6         5         5         3         
9.342675532753205e-18   0.000000000000000000E+00     6         5         5         4         
-2.800288693026123e-16  0.000000000000000000E+00     6         5         5         5         
-2.032172987903960e-17  0.000000000000000000E+00     6         5         6         1         
1.032533522382955e-09   0.000000000000000000E+00     6         5         6         2         
1.064372562740758e-09   0.000000000000000000E+00     6         5         6         3         
-2.542366000646875e-09  0.000000000000000000E+00     6         5         6         4         
1.971723484078854e-03   0.000000000000000000E+00     6         5         6         5         
1.952202762692218e-01   0.000000000000000000E+00     6         6         1         1         
2.155054406648054e-17   0.000000000000000000E+00     6         6         2         1         
1.891227638325250e-01   0.000000000000000000E+00     6         6         2         2         
-3.243782824589452e-18  0.000000000000000000E+00     6         6         3         1         
-1.879813794021930e-08  0.000000000000000000E+00     6         6         3         2         
1.891227924267158e-01   0.000000000000000000E+00     6         6         3         3         
-1.077338050213139e-17  0.000000000000000000E+00     6         6         4         1         
-4.225546863395859e-08  0.000000000000000000E+00     6         6         4         2         
-1.355247900841925e-08  0.000000000000000000E+00     6         6         4         3         
1.864482414414094e-01   0.000000000000000000E+00     6         6         4         4         
5.577100445733816e-18   0.000000000000000000E+00     6         6         5         1         
-3.321005838007971e-09  0.000000000000000000E+00     6         6         5         2         
3.716759336924121e-08   0.000000000000000000E+00     6         6         5         3         
1.488782808378513e-08   0.000000000000000000E+00     6         6         5         4         
1.864482255600531e-01   0.000000000000000000E+00     6         6         5         5         
-7.206726426307847e-09  0.000000000000000000E+00     6         6         6         1         
-1.082428840993529e-17  0.000000000000000000E+00     6         6         6         2         
5.209415495881623e-18   0.000000000000000000E+00     6         6         6         3         
3.630204906262037e-17   0.000000000000000000E+00     6         6         6         4         
-4.313350908410745e-17  0.000000000000000000E+00     6         6         6         5         
1.719259391704756e-01   0.000000000000000000E+00     6         6         6         6         
-1.867961552457981e+00  0.000000000000000000E+00     1         1         0         0         
-2.675007513144858e-16  0.000000000000000000E+00     2         1         0         0         
-1.711392372950691e+00  0.000000000000000000E+00     2         2         0         0         
1.217146205777283e-17   0.000000000000000000E+00     3         1         0         0         
1.011514696979148e-03   0.000000000000000000E+00     3         2         0         0         
-1.715746103836916e+00  0.000000000000000000E+00     3         3         0         0         
1.527076051299609e-16   0.000000000000000000E+00     4         1         0         0         
2.755630512726676e-08   0.000000000000000000E+00     4         2         0         0         
3.327070520805844e-08   0.000000000000000000E+00     4         3         0         0         
-1.397793464577142e+00  0.000000000000000000E+00     4         4         0         0         
-1.840074828073842e-16  0.000000000000000000E+00     5         1         0         0         
1.391697881671605e-08   0.000000000000000000E+00     5         2         0         0         
-1.935433786776145e-08  0.000000000000000000E+00     5         3         0         0         
-5.056697225955007e-03  0.000000000000000000E+00     5         4         0         0         
-1.394243819429660e+00  0.000000000000000000E+00     5         5         0         0         
-2.631413234031944e-03  0.000000000000000000E+00     6         1         0         0         
-5.010241260238798e-17  0.000000000000000000E+00     6         2         0         0         
2.105003050445408e-16   0.000000000000000000E+00     6         3         0         0         
-9.495930169099137e-16  0.000000000000000000E+00     6         4         0         0         
1.384475428446221e-15   0.000000000000000000E+00     6         5         0         0         
-9.560291253543524e-01  0.000000000000000000E+00     6         6         0         0         
-2.242700318175063e+02  0.000000000000000000E+00     0         0         0         0         
